<?xml version="1.0" encoding="UTF-8"?>

<!-- generated on 2024-03-30 07:47:33 by Eclipse SUMO sumo Version 1.19.0
-->

<configuration xmlns:xsi="http://www.w3.org/2001/XMLSchema-instance" xsi:noNamespaceSchemaLocation="http://sumo.dlr.de/xsd/sumoConfiguration.xsd">

    <input>
        <net-file value="osm.net.xml"/>
        <route-files value="episode_routes.rou.xml"/>
        <additional-files value="ChargingStations.add.xml"/>
    </input>

    <output>
        <battery-output value="Battery.out.xml"/>
        <chargingstations-output value="chargingstations.out.xml"/>
        <battery-output.precision value="4"/>
        <summary-output value="summary_100.xml"/>
    </output>

    <processing>
        <ignore-route-errors value="true"/>
    </processing>

    <routing>
        <device.rerouting.adaptation-steps value="18"/>
        <device.rerouting.adaptation-interval value="10"/>
    </routing>

    <report>
        <verbose value="true"/>
        <duration-log.statistics value="true"/>
        <no-step-log value="true"/>
    </report>

    <battery>
        <device.battery.probability value="1"/>
    </battery>

    <gui_only>
        <gui-settings-file value="osm.view.xml"/>
    </gui_only>

</configuration>
